                                        
           1
    11.087000    0.000000    0.000000
    -5.543550    9.601595    0.000000
    -0.000130   -0.000225   25.000000
   Pt   H    K    O 
  80  92   1  46
Direct configuration=     1
   0.16666999  0.33333001  0.00000000
   0.00000000  0.00000000  0.09052000
   0.33333001  0.16666999  0.18105000
   0.16827135  0.32954423  0.26986919
   0.02145191  0.01125466  0.36548183
   0.16666999  0.08333000  0.00000000
   0.00000000  0.25000000  0.09052000
   0.33333001  0.41666999  0.18105000
   0.17002381  0.08565486  0.27119375
   0.01641845  0.25811579  0.36314360
   0.41666999  0.08333000  0.00000000
   0.25000000  0.25000000  0.09052000
   0.08333000  0.41666999  0.18105000
   0.42969773  0.08873711  0.26988595
   0.27438141  0.26164298  0.37246374
   0.41666999  0.33333001  0.00000000
   0.25000000  0.00000000  0.09052000
   0.08333000  0.16666999  0.18105000
   0.43054301  0.32961249  0.27524548
   0.25651471  0.00216239  0.37009140
   0.66667002  0.33333001  0.00000000
   0.50000000  0.00000000  0.09052000
   0.83332998  0.16666999  0.18105000
   0.67626885  0.34037038  0.26763421
   0.51334670  0.00517143  0.36789360
   0.66667002  0.08333000  0.00000000
   0.50000000  0.25000000  0.09052000
   0.83332998  0.41666999  0.18105000
   0.67586452  0.08813550  0.26960958
   0.51250228  0.25687298  0.36987476
   0.91667002  0.08333000  0.00000000
   0.75000000  0.25000000  0.09052000
   0.58332998  0.41666999  0.18105000
   0.91017312  0.06935670  0.26974165
   0.75577981  0.25540691  0.36511547
   0.91667002  0.33333001  0.00000000
   0.75000000  0.00000000  0.09052000
   0.58332998  0.16666999  0.18105000
   0.91973073  0.33292104  0.26936665
   0.77079774  0.00736917  0.36227186
   0.16666999  0.83332998  0.00000000
   0.00000000  0.50000000  0.09052000
   0.33333001  0.66667002  0.18105000
   0.17362134  0.84122338  0.27702511
   0.00210831  0.50078452  0.36865493
   0.16666999  0.58332998  0.00000000
   0.00000000  0.75000000  0.09052000
   0.33333001  0.91667002  0.18105000
   0.17206745  0.59130809  0.27902345
   0.02356718  0.76621300  0.37213985
   0.41666999  0.58332998  0.00000000
   0.25000000  0.75000000  0.09052000
   0.08333000  0.91667002  0.18105000
   0.41714276  0.57690680  0.27092492
   0.27293772  0.75984790  0.36842461
   0.41666999  0.83332998  0.00000000
   0.25000000  0.50000000  0.09052000
   0.08333000  0.66667002  0.18105000
   0.42806011  0.83265298  0.27135182
   0.26082458  0.50756516  0.35718950
   0.66667002  0.83332998  0.00000000
   0.50000000  0.50000000  0.09052000
   0.83332998  0.66667002  0.18105000
   0.67290295  0.83293806  0.26745430
   0.52573456  0.51979395  0.36508408
   0.66667002  0.58332998  0.00000000
   0.50000000  0.75000000  0.09052000
   0.83332998  0.91667002  0.18105000
   0.67225532  0.58657762  0.27142348
   0.51364342  0.75708411  0.36264646
   0.91667002  0.58332998  0.00000000
   0.75000000  0.75000000  0.09052000
   0.58332998  0.91667002  0.18105000
   0.92419152  0.58525403  0.27260338
   0.78126357  0.77120473  0.36762337
   0.91667002  0.83332998  0.00000000
   0.75000000  0.50000000  0.09052000
   0.58332998  0.66667002  0.18105000
   0.92950882  0.83946199  0.27589155
   0.76000824  0.49923030  0.36440382
   0.04487103  0.88466734  0.65065449
   0.04799222  0.96907980  0.69924528
   0.57687961  0.37605022  0.89647784
   0.75141094  0.48529927  0.89299353
   0.25880932  0.77211623  0.78842476
   0.39049061  0.89236204  0.81218717
   0.53935515  0.54513536  0.47717847
   0.40174865  0.41635040  0.46140222
   0.05403640  0.66540424  0.61180849
   0.09291685  0.79598536  0.57916143
   0.70459649  0.12086586  0.46330403
   0.89943945  0.38837987  0.46464466
   0.24792279  0.32348432  0.66741427
   0.17136826  0.16680927  0.64448161
   0.62082566  0.09892952  0.60195446
   0.51833541  0.02790303  0.55226958
   0.75275421  0.78373813  0.62354768
   0.75645331  0.78631953  0.55940436
   0.18745146  0.02775087  0.76468915
   0.04793231  0.95343503  0.79677376
   0.69997692  0.50787955  0.81604620
   0.62266802  0.58681002  0.81402376
   0.71387558  0.89021486  0.46716967
   0.82275012  0.03294397  0.49027336
   0.78828514  0.97339513  0.80653144
   0.71154888  0.05835555  0.82488409
   0.28170228  0.69394407  0.90234209
   0.27867891  0.56640025  0.87380025
   0.30361635  0.55622491  0.48332069
   0.76176379  0.70518218  0.74454715
   0.72647642  0.79854357  0.71158780
   0.40429559  0.56139921  0.60169342
   0.48017778  0.71997147  0.59397480
   0.52260008  0.46512868  0.68905546
   0.67124019  0.52919327  0.67726377
   0.26062757  0.31523794  0.90309284
   0.29089278  0.29492429  0.84236833
   0.89942582  0.26234946  0.74351906
   0.77447877  0.17438632  0.70375555
   0.93582773  0.43806020  0.90098475
   0.04920899  0.54065757  0.86281804
   0.27330091  0.60059575  0.67551937
   0.15262456  0.56649337  0.71589460
   0.43242508  0.86815535  0.48387780
   0.31582698  0.87127954  0.51554834
   0.84843738  0.93543112  0.90118506
   0.76052931  0.78019434  0.92236574
   0.70727282  0.26482616  0.88470290
   0.75020903  0.17303958  0.92016296
   0.46895694  0.42971989  0.76269669
   0.38280222  0.49334614  0.74425000
   0.64542522  0.23228053  0.46180312
   0.44663865  0.16396653  0.45807668
   0.78579416  0.59429245  0.49357115
   0.83637973  0.70910203  0.45679414
   0.78469682  0.01636619  0.59657171
   0.86760907  0.09507069  0.64535407
   0.25824980  0.15468818  0.45667456
   0.26799712  0.19182062  0.51550690
   0.92437480  0.47314096  0.61414344
   0.89333331  0.51585207  0.67034539
   0.98154641  0.67147319  0.74637204
   0.97200448  0.52860658  0.75787238
   0.08616269  0.81051724  0.47928325
   0.16466871  0.96429029  0.50211075
   0.02790739  0.28217396  0.49834278
   0.25304847  0.60790669  0.53240512
   0.33529131  0.14308605  0.92286885
   0.24093185  0.02285625  0.88402530
   0.92495397  0.26670161  0.59980626
   0.05912530  0.38815427  0.58920860
   0.04230415  0.14042361  0.91975121
   0.00849649  0.20211033  0.86532842
   0.06302544  0.49886720  0.46932185
   0.07113405  0.18354547  0.47427184
   0.59465940  0.73548331  0.87071682
   0.46459893  0.58056828  0.88195528
   0.57922692  0.05470723  0.87024747
   0.43576154  0.02573589  0.88287212
   0.34704064  0.31727066  0.58956494
   0.50426739  0.38515957  0.56323231
   0.58485650  0.26103347  0.74031437
   0.53029545  0.15033087  0.78027073
   0.62578699  0.29395841  0.56158572
   0.73910004  0.43894867  0.59380530
   0.00925966  0.82377050  0.91305881
   0.02434195  0.71516429  0.88561795
   0.05036560  0.21837382  0.77695357
   0.11394896  0.34818913  0.74266499
   0.63923608  0.96607720  0.72324193
   0.49684409  0.83588758  0.72568842
   0.53500282  0.79173230  0.67864856
   0.37013293  0.95922021  0.67359173
   0.07957962  0.97991122  0.66283504
   0.66779240  0.40944223  0.87484146
   0.34284312  0.84712681  0.77821941
   0.45178417  0.51575370  0.45736324
   0.12378975  0.76263272  0.61160286
   0.73385325  0.22231384  0.46397589
   0.19853361  0.26332884  0.63633049
   0.53071174  0.08377790  0.58452271
   0.73515139  0.81960178  0.58944790
   0.08887480  0.00336106  0.76431292
   0.66969623  0.55342745  0.79153811
   0.72200518  0.96392789  0.48951197
   0.73338155  0.01255957  0.79440626
   0.22484148  0.61562930  0.87893492
   0.22180448  0.54374192  0.50305854
   0.80654156  0.79782194  0.72905917
   0.39166926  0.64200950  0.60583500
   0.58426238  0.50458927  0.66104598
   0.31131850  0.36132038  0.87033315
   0.83009894  0.26461050  0.71889756
   0.95601377  0.51495350  0.87453389
   0.23066514  0.54831953  0.70958162
   0.40441364  0.87176042  0.52039179
   0.77330938  0.84037510  0.89008629
   0.72867083  0.19043346  0.88230699
   0.38991288  0.41276426  0.74143105
   0.51537824  0.25987101  0.44994603
   0.80280153  0.68770686  0.49450779
   0.82632677  0.10502804  0.61291329
   0.19753158  0.13631038  0.49000369
   0.88826997  0.53061344  0.63173816
   0.99783220  0.59867224  0.73198091
   0.14886658  0.86141721  0.50894023
   0.99282640  0.20095025  0.47263859
   0.32087642  0.11412964  0.88455568
   0.96632278  0.35287331  0.57894336
   0.98803087  0.11570911  0.88370969
   0.97592507  0.47982516  0.45342202
   0.52083049  0.65056174  0.85356985
   0.47859201  0.98195634  0.86497669
   0.40413046  0.36280362  0.55741519
   0.49746181  0.17212107  0.74654866
   0.68628477  0.40197041  0.56085488
   0.07746201  0.81462842  0.88810257
   0.04785291  0.29934612  0.77143386
   0.56589645  0.89102824  0.69799910
Direct configuration=     2
   0.16666999  0.33333001  0.00000000
   0.00000000  0.00000000  0.09052000
   0.33333001  0.16666999  0.18105000
   0.16825281  0.32950779  0.26977887
   0.02137527  0.01136265  0.36551498
   0.16666999  0.08333000  0.00000000
   0.00000000  0.25000000  0.09052000
   0.33333001  0.41666999  0.18105000
   0.16983196  0.08560191  0.27125824
   0.01670690  0.25819030  0.36306756
   0.41666999  0.08333000  0.00000000
   0.25000000  0.25000000  0.09052000
   0.08333000  0.41666999  0.18105000
   0.42974153  0.08881013  0.26985408
   0.27444748  0.26168511  0.37244526
   0.41666999  0.33333001  0.00000000
   0.25000000  0.00000000  0.09052000
   0.08333000  0.16666999  0.18105000
   0.43026096  0.32949683  0.27517077
   0.25653752  0.00219991  0.37004266
   0.66667002  0.33333001  0.00000000
   0.50000000  0.00000000  0.09052000
   0.83332998  0.16666999  0.18105000
   0.67613695  0.34036831  0.26768132
   0.51358291  0.00546209  0.36784629
   0.66667002  0.08333000  0.00000000
   0.50000000  0.25000000  0.09052000
   0.83332998  0.41666999  0.18105000
   0.67556559  0.08807900  0.26953060
   0.51258310  0.25704505  0.36988698
   0.91667002  0.08333000  0.00000000
   0.75000000  0.25000000  0.09052000
   0.58332998  0.41666999  0.18105000
   0.91017444  0.06927322  0.26989367
   0.75583148  0.25547994  0.36511029
   0.91667002  0.33333001  0.00000000
   0.75000000  0.00000000  0.09052000
   0.58332998  0.16666999  0.18105000
   0.91973436  0.33307357  0.26928503
   0.77061254  0.00715913  0.36230495
   0.16666999  0.83332998  0.00000000
   0.00000000  0.50000000  0.09052000
   0.33333001  0.66667002  0.18105000
   0.17342497  0.84124517  0.27693813
   0.00190202  0.50067265  0.36851921
   0.16666999  0.58332998  0.00000000
   0.00000000  0.75000000  0.09052000
   0.33333001  0.91667002  0.18105000
   0.17201094  0.59126531  0.27898221
   0.02345923  0.76623994  0.37204980
   0.41666999  0.58332998  0.00000000
   0.25000000  0.75000000  0.09052000
   0.08333000  0.91667002  0.18105000
   0.41737939  0.57729576  0.27090845
   0.27280202  0.75993623  0.36848036
   0.41666999  0.83332998  0.00000000
   0.25000000  0.50000000  0.09052000
   0.08333000  0.66667002  0.18105000
   0.42818706  0.83278790  0.27137363
   0.26105072  0.50754726  0.35723361
   0.66667002  0.83332998  0.00000000
   0.50000000  0.50000000  0.09052000
   0.83332998  0.66667002  0.18105000
   0.67283283  0.83310235  0.26749113
   0.52567768  0.51985661  0.36509861
   0.66667002  0.58332998  0.00000000
   0.50000000  0.75000000  0.09052000
   0.83332998  0.91667002  0.18105000
   0.67220175  0.58650585  0.27137763
   0.51348136  0.75712118  0.36263365
   0.91667002  0.58332998  0.00000000
   0.75000000  0.75000000  0.09052000
   0.58332998  0.91667002  0.18105000
   0.92434407  0.58544104  0.27260699
   0.78127077  0.77107316  0.36760695
   0.91667002  0.83332998  0.00000000
   0.75000000  0.50000000  0.09052000
   0.58332998  0.66667002  0.18105000
   0.92945342  0.83948807  0.27593084
   0.76003909  0.49928812  0.36448768
   0.04169556  0.88336994  0.64992865
   0.04491143  0.96905772  0.69923279
   0.57619178  0.37508935  0.89697089
   0.75125300  0.48529675  0.89304936
   0.25882310  0.76991295  0.78753676
   0.39300812  0.89467239  0.81258360
   0.53815979  0.54580255  0.47701395
   0.40174095  0.41674500  0.46189802
   0.05490450  0.66473305  0.61179139
   0.09360257  0.79674365  0.57899733
   0.70477292  0.11966404  0.46204748
   0.90083781  0.38711387  0.46511743
   0.24698271  0.32372231  0.66830891
   0.17085637  0.16803777  0.64511145
   0.62196519  0.09995267  0.60192273
   0.51582053  0.02679514  0.55260192
   0.75404930  0.78599934  0.62298691
   0.75729820  0.78669337  0.55813570
   0.18465957  0.02590095  0.76464019
   0.04643001  0.95126779  0.79728213
   0.69989254  0.51113845  0.81773570
   0.62047633  0.58760649  0.81474819
   0.71321078  0.88995759  0.46764480
   0.82525540  0.03633723  0.48974320
   0.78917130  0.97410203  0.80724304
   0.71128368  0.05803062  0.82394109
   0.28352397  0.69428807  0.90137993
   0.27661305  0.56611815  0.87397096
   0.30346061  0.55697666  0.48283831
   0.76419695  0.70669534  0.74478793
   0.73089944  0.79812590  0.71194818
   0.40244306  0.56051536  0.60164957
   0.47896596  0.72080723  0.59435677
   0.52367320  0.46937761  0.68942094
   0.67231653  0.52971452  0.67606070
   0.26008753  0.31231795  0.90366010
   0.29069819  0.29558148  0.84283745
   0.90058710  0.26446172  0.74353629
   0.77635676  0.17588611  0.70339298
   0.93506798  0.43754925  0.90131187
   0.05034909  0.54169695  0.86308888
   0.27632778  0.60028131  0.67554327
   0.14948360  0.56093625  0.71625561
   0.43025215  0.86876455  0.48281390
   0.31352711  0.87374946  0.51462413
   0.84727141  0.93598496  0.90198253
   0.76265684  0.77878907  0.92153438
   0.70505476  0.26271287  0.88552314
   0.75071122  0.17377444  0.92172597
   0.46839087  0.42868351  0.76404790
   0.37985589  0.49351868  0.74371900
   0.64561226  0.23411143  0.46152683
   0.44686533  0.16297252  0.45823622
   0.78804107  0.59498255  0.49270913
   0.83646764  0.71080982  0.45696758
   0.78520569  0.01420017  0.59613302
   0.86843534  0.09567542  0.64628481
   0.25843770  0.15625753  0.45723979
   0.26877571  0.19318581  0.51457981
   0.92364073  0.47065079  0.61423373
   0.89277553  0.51440171  0.67201580
   0.97975048  0.66927565  0.74675615
   0.97021414  0.52567149  0.75768439
   0.08297028  0.80920974  0.47805005
   0.16739023  0.96790938  0.50273914
   0.02676139  0.27842260  0.49742616
   0.25224694  0.60923375  0.53257913
   0.33814825  0.14157740  0.92158969
   0.24079452  0.02273726  0.88377406
   0.92885008  0.26748111  0.60017428
   0.06292224  0.38949043  0.58920125
   0.04230551  0.13965061  0.92133434
   0.01007702  0.20277320  0.86672323
   0.06201503  0.49785703  0.47032496
   0.07294489  0.18365123  0.47535986
   0.59280736  0.73276797  0.87134096
   0.46520468  0.57925219  0.88134836
   0.58131018  0.05419786  0.86907105
   0.43462260  0.02453036  0.88259530
   0.34803190  0.31762167  0.58856918
   0.50527751  0.38573176  0.56414981
   0.58372697  0.26066875  0.73992332
   0.52902537  0.15278489  0.78035043
   0.62818956  0.29449163  0.56225819
   0.73589579  0.43614150  0.59550341
   0.01147450  0.82584734  0.91191549
   0.02635304  0.71576683  0.88477876
   0.04979952  0.21559585  0.77741808
   0.11595450  0.34640836  0.74269519
   0.64132495  0.96933433  0.72425333
   0.49555369  0.83402878  0.72735035
   0.53525657  0.79521848  0.67853676
   0.37044296  0.95961225  0.67360893
   0.07895947  0.97989791  0.66304722
   0.66692674  0.40835096  0.87485231
   0.34204773  0.84649577  0.77843794
   0.45115216  0.51476544  0.45726661
   0.12357094  0.76372060  0.61149217
   0.73361074  0.22181743  0.46368025
   0.19857984  0.26305462  0.63629722
   0.53159269  0.08397409  0.58463586
   0.73454463  0.81929526  0.58945076
   0.08939214  0.00352779  0.76429088
   0.67040063  0.55429595  0.79118647
   0.72155381  0.96375285  0.48938321
   0.73335004  0.01211281  0.79464787
   0.22430188  0.61507940  0.87916197
   0.22165198  0.54368882  0.50314909
   0.80676546  0.79816218  0.72894329
   0.39200508  0.64215839  0.60596733
   0.58453237  0.50464201  0.66097608
   0.31234227  0.36155448  0.87038800
   0.82992242  0.26499223  0.71833641
   0.95557757  0.51463502  0.87448693
   0.23112722  0.54868492  0.70967970
   0.40450808  0.87191562  0.52046965
   0.77361761  0.84047567  0.88974075
   0.72941349  0.19060038  0.88239324
   0.38937914  0.41234802  0.74124353
   0.51555062  0.25983785  0.45010944
   0.80351761  0.68786226  0.49444671
   0.82666271  0.10545895  0.61287980
   0.19701648  0.13529549  0.49002092
   0.88960159  0.53144046  0.63170573
   0.99764725  0.59853764  0.73196427
   0.14828462  0.86109663  0.50923164
   0.99286030  0.20170240  0.47243684
   0.32049820  0.11461860  0.88487125
   0.96597317  0.35212992  0.57888053
   0.98732323  0.11523413  0.88361309
   0.97578827  0.47952798  0.45326556
   0.52089201  0.65104579  0.85330648
   0.47860954  0.98200841  0.86485008
   0.40473120  0.36332151  0.55721221
   0.49757002  0.17228756  0.74679814
   0.68677103  0.40204203  0.56088122
   0.07718863  0.81422114  0.88809990
   0.04821493  0.29949129  0.77126011
   0.56615090  0.89136440  0.69792904
Direct configuration=     3
   0.16666999  0.33333001  0.00000000
   0.00000000  0.00000000  0.09052000
   0.33333001  0.16666999  0.18105000
   0.16823442  0.32947081  0.26968906
   0.02130015  0.01147388  0.36554950
   0.16666999  0.08333000  0.00000000
   0.00000000  0.25000000  0.09052000
   0.33333001  0.41666999  0.18105000
   0.16964452  0.08555114  0.27132343
   0.01699522  0.25826354  0.36299183
   0.41666999  0.08333000  0.00000000
   0.25000000  0.25000000  0.09052000
   0.08333000  0.41666999  0.18105000
   0.42978128  0.08887898  0.26982442
   0.27450818  0.26172633  0.37242457
   0.41666999  0.33333001  0.00000000
   0.25000000  0.00000000  0.09052000
   0.08333000  0.16666999  0.18105000
   0.42997394  0.32938312  0.27509590
   0.25656843  0.00224261  0.36999378
   0.66667002  0.33333001  0.00000000
   0.50000000  0.00000000  0.09052000
   0.83332998  0.16666999  0.18105000
   0.67600441  0.34036387  0.26773130
   0.51381845  0.00575181  0.36779806
   0.66667002  0.08333000  0.00000000
   0.50000000  0.25000000  0.09052000
   0.83332998  0.41666999  0.18105000
   0.67526347  0.08802061  0.26945313
   0.51266237  0.25721621  0.36989671
   0.91667002  0.08333000  0.00000000
   0.75000000  0.25000000  0.09052000
   0.58332998  0.41666999  0.18105000
   0.91018384  0.06919966  0.27004595
   0.75588500  0.25554908  0.36510448
   0.91667002  0.33333001  0.00000000
   0.75000000  0.00000000  0.09052000
   0.58332998  0.16666999  0.18105000
   0.91974078  0.33322740  0.26920521
   0.77042445  0.00694999  0.36233924
   0.16666999  0.83332998  0.00000000
   0.00000000  0.50000000  0.09052000
   0.33333001  0.66667002  0.18105000
   0.17323102  0.84126536  0.27684909
   0.00170134  0.50056434  0.36838291
   0.16666999  0.58332998  0.00000000
   0.00000000  0.75000000  0.09052000
   0.33333001  0.91667002  0.18105000
   0.17195066  0.59122178  0.27893634
   0.02334625  0.76626082  0.37195996
   0.41666999  0.58332998  0.00000000
   0.25000000  0.75000000  0.09052000
   0.08333000  0.91667002  0.18105000
   0.41761975  0.57768675  0.27089058
   0.27266295  0.76002501  0.36853720
   0.41666999  0.83332998  0.00000000
   0.25000000  0.50000000  0.09052000
   0.08333000  0.66667002  0.18105000
   0.42831066  0.83292471  0.27139542
   0.26127830  0.50752631  0.35728222
   0.66667002  0.83332998  0.00000000
   0.50000000  0.50000000  0.09052000
   0.83332998  0.66667002  0.18105000
   0.67275969  0.83326277  0.26753045
   0.52561939  0.51991788  0.36511356
   0.66667002  0.58332998  0.00000000
   0.50000000  0.75000000  0.09052000
   0.83332998  0.91667002  0.18105000
   0.67214928  0.58643473  0.27133251
   0.51332383  0.75716115  0.36262158
   0.91667002  0.58332998  0.00000000
   0.75000000  0.75000000  0.09052000
   0.58332998  0.91667002  0.18105000
   0.92449750  0.58563092  0.27261083
   0.78127152  0.77093532  0.36759077
   0.91667002  0.83332998  0.00000000
   0.75000000  0.50000000  0.09052000
   0.58332998  0.66667002  0.18105000
   0.92939376  0.83950817  0.27596784
   0.76007253  0.49935347  0.36457154
   0.03899808  0.88272079  0.64918955
   0.04158796  0.96894393  0.69958453
   0.57772719  0.37537229  0.89717587
   0.74979380  0.48426240  0.89317535
   0.25614076  0.76495856  0.78705146
   0.39545222  0.89688879  0.81298870
   0.53696892  0.54655013  0.47684904
   0.40093372  0.41550845  0.46249064
   0.05531848  0.66389035  0.61194009
   0.09511133  0.79728907  0.57902828
   0.70516698  0.11945523  0.46086097
   0.90202735  0.38564590  0.46551846
   0.24534190  0.32272588  0.66879590
   0.16995637  0.16828537  0.64591195
   0.62174259  0.10076278  0.60140920
   0.51300819  0.02495531  0.55281096
   0.75553146  0.78800643  0.62201288
   0.75869075  0.78622213  0.55646921
   0.18272434  0.02430700  0.76471882
   0.04520505  0.94934613  0.79771939
   0.69985717  0.51362709  0.81964128
   0.61826091  0.58867164  0.81545646
   0.71248467  0.88865621  0.46771526
   0.82661563  0.03892662  0.48911022
   0.79024349  0.97444825  0.80817463
   0.71165684  0.05763916  0.82292057
   0.28565517  0.69512933  0.90056976
   0.27436709  0.56593187  0.87414590
   0.30323269  0.55783503  0.48247072
   0.76619090  0.70718494  0.74538294
   0.73421809  0.79774375  0.71205021
   0.40084928  0.55947410  0.60152092
   0.47822953  0.72188223  0.59450165
   0.52233433  0.47228335  0.69073927
   0.67468621  0.53059923  0.67497094
   0.26016145  0.30973798  0.90386466
   0.29005823  0.29497053  0.84302958
   0.90134799  0.26630604  0.74341145
   0.77754205  0.17603603  0.70280122
   0.93458332  0.43819052  0.90134224
   0.05191576  0.54296985  0.86351762
   0.27851904  0.59910234  0.67589416
   0.14709613  0.55568871  0.71649220
   0.42818260  0.86935563  0.48190188
   0.31193096  0.87594896  0.51381582
   0.84529359  0.93571710  0.90261806
   0.76500579  0.77799748  0.92041900
   0.70260908  0.26141881  0.88634362
   0.75091616  0.17472354  0.92277977
   0.46777418  0.42778966  0.76546078
   0.37676212  0.49428375  0.74333869
   0.64664728  0.23574357  0.46129666
   0.44701724  0.16188944  0.45841661
   0.78985184  0.59430005  0.49215878
   0.83660910  0.71326173  0.45711262
   0.78573433  0.01134708  0.59549668
   0.86918782  0.09625207  0.64696184
   0.25761853  0.15741802  0.45778416
   0.27060172  0.19580333  0.51424438
   0.92226655  0.46819130  0.61444931
   0.89248346  0.51344793  0.67297418
   0.97794152  0.66698958  0.74721516
   0.96782228  0.52210390  0.75789757
   0.08083753  0.80864624  0.47722457
   0.16948044  0.96887036  0.50348513
   0.02534389  0.27515028  0.49665661
   0.25188716  0.61093144  0.53273229
   0.34103266  0.14036755  0.92089715
   0.23984792  0.02171011  0.88364778
   0.93175344  0.26740577  0.60042528
   0.06718306  0.39133834  0.58903013
   0.04118715  0.13857128  0.92210711
   0.01172880  0.20384199  0.86824310
   0.06207960  0.49719135  0.47151361
   0.07411758  0.18345000  0.47631489
   0.59147137  0.73062389  0.87214147
   0.46671041  0.57877632  0.88041970
   0.58263607  0.05325266  0.86802318
   0.43231497  0.02419224  0.88267118
   0.34894106  0.31796528  0.58775704
   0.50495885  0.38590910  0.56502748
   0.58225391  0.26025381  0.73933409
   0.52714445  0.15460200  0.78062608
   0.63202544  0.29716186  0.56298404
   0.73251664  0.43309451  0.59707217
   0.01418330  0.82827945  0.91070823
   0.02777433  0.71445428  0.88386927
   0.04930781  0.21171091  0.77797569
   0.11813961  0.34481793  0.74276500
   0.64397607  0.97158282  0.72521448
   0.49410080  0.83315762  0.72919423
   0.53735828  0.80009500  0.67823695
   0.37072959  0.96000599  0.67362165
   0.07834128  0.97985159  0.66322339
   0.66600297  0.40723393  0.87488801
   0.34145467  0.84604362  0.77862239
   0.45059330  0.51388852  0.45717377
   0.12336912  0.76487950  0.61136338
   0.73330790  0.22129161  0.46338118
   0.19868880  0.26291104  0.63628212
   0.53259605  0.08424650  0.58479345
   0.73388641  0.81904799  0.58950579
   0.08985124  0.00368100  0.76428936
   0.67107901  0.55520359  0.79081229
   0.72118851  0.96371101  0.48928132
   0.73325604  0.01168496  0.79485935
   0.22377367  0.61449923  0.87937034
   0.22146656  0.54359854  0.50322951
   0.80707950  0.79855431  0.72882674
   0.39231579  0.64231264  0.60612295
   0.58488050  0.50476739  0.66083483
   0.31336624  0.36187649  0.87048729
   0.82979761  0.26549224  0.71779255
   0.95508493  0.51423508  0.87444900
   0.23160791  0.54909576  0.70975545
   0.40454368  0.87207740  0.52051862
   0.77396480  0.84058886  0.88940924
   0.73020663  0.19070309  0.88249686
   0.38884304  0.41187931  0.74105210
   0.51573361  0.25979078  0.45030117
   0.80424251  0.68805109  0.49437204
   0.82697683  0.10586918  0.61288564
   0.19650967  0.13422749  0.49000766
   0.89093727  0.53218397  0.63170585
   0.99749127  0.59843642  0.73193416
   0.14767884  0.86091610  0.50948558
   0.99293889  0.20243244  0.47224030
   0.32015681  0.11512335  0.88513202
   0.96569779  0.35147169  0.57882307
   0.98668853  0.11476011  0.88355391
   0.97560445  0.47923084  0.45311948
   0.52087101  0.65142866  0.85304541
   0.47871352  0.98201424  0.86469440
   0.40542238  0.36386552  0.55700040
   0.49774127  0.17249716  0.74705006
   0.68714748  0.40198127  0.56090144
   0.07692625  0.81392075  0.88809888
   0.04858172  0.29969045  0.77108338
   0.56626352  0.89158096  0.69789883
Direct configuration=     4
   0.16666999  0.33333001  0.00000000
   0.00000000  0.00000000  0.09052000
   0.33333001  0.16666999  0.18105000
   0.16821623  0.32943340  0.26959982
   0.02122660  0.01158829  0.36558540
   0.16666999  0.08333000  0.00000000
   0.00000000  0.25000000  0.09052000
   0.33333001  0.41666999  0.18105000
   0.16946158  0.08550259  0.27138927
   0.01728329  0.25833548  0.36291643
   0.41666999  0.08333000  0.00000000
   0.25000000  0.25000000  0.09052000
   0.08333000  0.41666999  0.18105000
   0.42981682  0.08894362  0.26979695
   0.27456349  0.26176664  0.37240170
   0.41666999  0.33333001  0.00000000
   0.25000000  0.00000000  0.09052000
   0.08333000  0.16666999  0.18105000
   0.42968208  0.32927144  0.27502087
   0.25660742  0.00229048  0.36994474
   0.66667002  0.33333001  0.00000000
   0.50000000  0.00000000  0.09052000
   0.83332998  0.16666999  0.18105000
   0.67587132  0.34035715  0.26778413
   0.51405316  0.00604047  0.36774895
   0.66667002  0.08333000  0.00000000
   0.50000000  0.25000000  0.09052000
   0.83332998  0.41666999  0.18105000
   0.67495850  0.08796047  0.26937720
   0.51274003  0.25738640  0.36990407
   0.91667002  0.08333000  0.00000000
   0.75000000  0.25000000  0.09052000
   0.58332998  0.41666999  0.18105000
   0.91020124  0.06913609  0.27019840
   0.75594037  0.25561434  0.36509799
   0.91667002  0.33333001  0.00000000
   0.75000000  0.00000000  0.09052000
   0.58332998  0.16666999  0.18105000
   0.91974987  0.33338237  0.26912723
   0.77023353  0.00674185  0.36237477
   0.16666999  0.83332998  0.00000000
   0.00000000  0.50000000  0.09052000
   0.33333001  0.66667002  0.18105000
   0.17303965  0.84128399  0.27675803
   0.00150643  0.50045962  0.36824611
   0.16666999  0.58332998  0.00000000
   0.00000000  0.75000000  0.09052000
   0.33333001  0.91667002  0.18105000
   0.17188685  0.59117759  0.27888591
   0.02322831  0.76627568  0.37187040
   0.41666999  0.58332998  0.00000000
   0.25000000  0.75000000  0.09052000
   0.08333000  0.91667002  0.18105000
   0.41786367  0.57807957  0.27087135
   0.27252058  0.76011420  0.36859509
   0.41666999  0.83332998  0.00000000
   0.25000000  0.50000000  0.09052000
   0.08333000  0.66667002  0.18105000
   0.42843069  0.83306336  0.27141718
   0.26150722  0.50750242  0.35733526
   0.66667002  0.83332998  0.00000000
   0.50000000  0.50000000  0.09052000
   0.83332998  0.66667002  0.18105000
   0.67268364  0.83341924  0.26757221
   0.52555972  0.51997770  0.36512891
   0.66667002  0.58332998  0.00000000
   0.50000000  0.75000000  0.09052000
   0.83332998  0.91667002  0.18105000
   0.67209786  0.58636431  0.27128814
   0.51317086  0.75720401  0.36261029
   0.91667002  0.58332998  0.00000000
   0.75000000  0.75000000  0.09052000
   0.58332998  0.91667002  0.18105000
   0.92465164  0.58582354  0.27261488
   0.78126574  0.77079124  0.36757484
   0.91667002  0.83332998  0.00000000
   0.75000000  0.50000000  0.09052000
   0.58332998  0.66667002  0.18105000
   0.92932978  0.83952227  0.27600248
   0.76010849  0.49942636  0.36465536
   0.03695761  0.88312022  0.64853483
   0.03826084  0.96871843  0.70004482
   0.58096317  0.37667529  0.89717605
   0.74715917  0.48223275  0.89337294
   0.25259805  0.75891170  0.78683368
   0.39738126  0.89861031  0.81330392
   0.53612078  0.54746296  0.47676605
   0.39954923  0.41300421  0.46317037
   0.05565833  0.66353561  0.61223289
   0.09719757  0.79772130  0.57908172
   0.70566699  0.12020268  0.45977016
   0.90308761  0.38423393  0.46577167
   0.24303206  0.32054874  0.66882346
   0.16859435  0.16740630  0.64685553
   0.62076881  0.10139443  0.60051387
   0.51002950  0.02253048  0.55296667
   0.75746252  0.78936907  0.62102453
   0.76010000  0.78565660  0.55512849
   0.18279321  0.02320722  0.76491618
   0.04462907  0.94813254  0.79780519
   0.69962782  0.51567930  0.82144575
   0.61659257  0.58972786  0.81581926
   0.71179927  0.88667394  0.46747243
   0.82628294  0.04025198  0.48837079
   0.79120085  0.97462191  0.80924063
   0.71241631  0.05772443  0.82214484
   0.28800892  0.69643505  0.89989508
   0.27239991  0.56529119  0.87426644
   0.30287458  0.55881358  0.48224194
   0.76785451  0.70698390  0.74627237
   0.73449405  0.79732543  0.71144540
   0.39964261  0.55847876  0.60129184
   0.47804648  0.72314309  0.59438435
   0.52013843  0.47468888  0.69240485
   0.67779121  0.53166622  0.67396841
   0.26112688  0.30784854  0.90359430
   0.28904243  0.29323238  0.84295317
   0.90154482  0.26783813  0.74306763
   0.77813587  0.17494659  0.70198707
   0.93433177  0.43978913  0.90113198
   0.05337441  0.54428024  0.86416882
   0.27976647  0.59723482  0.67648597
   0.14549457  0.55094555  0.71653296
   0.42622360  0.86995200  0.48135683